# vtk DataFile Version 4.2
RVE MODEL_3D
ASCII
DATASET UNSTRUCTURED_GRID
POINTS 8107 float
         0          0          0  
        20          0          0  
        20         20          0  
         0         20          0  
        15         10          0  
         5         10          0  
        10         15          0  
        10          5          0  
         0          0         20  
        20          0         20  
        20         20         20  
         0         20         20  
        15         10         20  
        10          5         20  
         5         10         20  
        10         15         20  
       2.5          0          0  
         5          0          0  
       7.5          0          0  
        10          0          0  
      12.5          0          0  
        15          0          0  
      17.5          0          0  
      1.25          0          0  
      3.75          0          0  
      6.25          0          0  
      8.75          0          0  
     11.25          0          0  
     13.75          0          0  
     16.25          0          0  
     18.75          0          0  
        20        2.5          0  
        20          5          0  
        20        7.5          0  
        20         10          0  
        20       12.5          0  
        20         15          0  
        20       17.5          0  
        20       1.25          0  
        20       3.75          0  
        20       6.25          0  
        20       8.75          0  
        20      11.25          0  
        20      13.75          0  
        20      16.25          0  
        20      18.75          0  
      17.5         20          0  
        15         20          0  
      12.5         20          0  
        10         20          0  
       7.5         20          0  
         5         20          0  
       2.5         20          0  
     18.75         20          0  
     16.25         20          0  
     13.75         20          0  
     11.25         20          0  
      8.75         20          0  
      6.25         20          0  
      3.75         20          0  
      1.25         20          0  
         0       17.5          0  
         0         15          0  
         0       12.5          0  
         0         10          0  
         0        7.5          0  
         0          5          0  
         0        2.5          0  
         0      18.75          0  
         0      16.25          0  
         0      13.75          0  
         0      11.25          0  
         0       8.75          0  
         0       6.25          0  
         0       3.75          0  
         0       1.25          0  
   14.8296    11.2941          0  
   14.3301       12.5          0  
   13.5355    13.5355          0  
      12.5    14.3301          0  
   11.2941    14.8296          0  
   14.9572    10.6526          0  
   14.6194    11.9134          0  
   13.9668    13.0438          0  
   13.0438    13.9668          0  
   11.9134    14.6194          0  
   10.6526    14.9572          0  
    8.7059    14.8296          0  
       7.5    14.3301          0  
   6.46447    13.5355          0  
   5.66987       12.5          0  
   5.17037    11.2941          0  
   9.34737    14.9572          0  
   8.08658    14.6194          0  
   6.95619    13.9668          0  
   6.03323    13.0438          0  
    5.3806    11.9134          0  
   5.04278    10.6526          0  
   5.17037     8.7059          0  
   5.66987        7.5          0  
   6.46447    6.46447          0  
       7.5    5.66987          0  
    8.7059    5.17037          0  
   5.04278    9.34737          0  
    5.3806    8.08658          0  
   6.03323    6.95619          0  
   6.95619    6.03323          0  
   8.08658     5.3806          0  
   9.34737    5.04278          0  
   11.2941    5.17037          0  
      12.5    5.66987          0  
   13.5355    6.46447          0  
   14.3301        7.5          0  
   14.8296     8.7059          0  
   10.6526    5.04278          0  
   11.9134     5.3806          0  
   13.0438    6.03323          0  
   13.9668    6.95619          0  
   14.6194    8.08658          0  
   14.9572    9.34737          0  
       2.5          0         20  
         5          0         20  
       7.5          0         20  
        10          0         20  
      12.5          0         20  
        15          0         20  
      17.5          0         20  
      1.25          0         20  
      3.75          0         20  
      6.25          0         20  
      8.75          0         20  
     11.25          0         20  
     13.75          0         20  
     16.25          0         20  
     18.75          0         20  
        20        2.5         20  
        20          5         20  
        20        7.5         20  
        20         10         20  
        20       12.5         20  
        20         15         20  
        20       17.5         20  
        20       1.25         20  
        20       3.75         20  
        20       6.25         20  
        20       8.75         20  
        20      11.25         20  
        20      13.75         20  
        20      16.25         20  
        20      18.75         20  
      17.5         20         20  
        15         20         20  
      12.5         20         20  
        10         20         20  
       7.5         20         20  
         5         20         20  
       2.5         20         20  
     18.75         20         20  
     16.25         20         20  
     13.75         20         20  
     11.25         20         20  
      8.75         20         20  
      6.25         20         20  
      3.75         20         20  
      1.25         20         20  
         0       17.5         20  
         0         15         20  
         0       12.5         20  
         0         10         20  
         0        7.5         20  
         0          5         20  
         0        2.5         20  
         0      18.75         20  
         0      16.25         20  
         0      13.75         20  
         0      11.25         20  
         0       8.75         20  
         0       6.25         20  
         0       3.75         20  
         0       1.25         20  
   14.8296     8.7059         20  
   14.3301        7.5         20  
   13.5355    6.46447         20  
      12.5    5.66987         20  
   11.2941    5.17037         20  
   14.9572    9.34737         20  
   14.6194    8.08658         20  
   13.9668    6.95619         20  
   13.0438    6.03323         20  
   11.9134     5.3806         20  
   10.6526    5.04278         20  
    8.7059    5.17037         20  
       7.5    5.66987         20  
   6.46447    6.46447         20  
   5.66987        7.5         20  
   5.17037     8.7059         20  
   9.34737    5.04278         20  
   8.08658     5.3806         20  
   6.95619    6.03323         20  
   6.03323    6.95619         20  
    5.3806    8.08658         20  
   5.04278    9.34737         20  
   5.17037    11.2941         20  
   5.66987       12.5         20  
   6.46447    13.5355         20  
       7.5    14.3301         20  
    8.7059    14.8296         20  
   5.04278    10.6526         20  
    5.3806    11.9134         20  
   6.03323    13.0438         20  
   6.95619    13.9668         20  
   8.08658    14.6194         20  
   9.34737    14.9572         20  
   11.2941    14.8296         20  
      12.5    14.3301         20  
   13.5355    13.5355         20  
   14.3301       12.5         20  
   14.8296    11.2941         20  
   10.6526    14.9572         20  
   11.9134    14.6194         20  
   13.0438    13.9668         20  
   13.9668    13.0438         20  
   14.6194    11.9134         20  
   14.9572    10.6526         20  
         0          0          4  
         0          0          8  
         0          0         12  
         0          0         16  
         0          0          2  
         0          0          6  
         0          0         10  
         0          0         14  
         0          0         18  
        20          0          4  
        20          0          8  
        20          0         12  
        20          0         16  
        20          0          2  
        20          0          6  
        20          0         10  
        20          0         14  
        20          0         18  
        20         20          4  
        20         20          8  
        20         20         12  
        20         20         16  
        20         20          2  
        20         20          6  
        20         20         10  
        20         20         14  
        20         20         18  
         0         20          4  
         0         20          8  
         0         20         12  
         0         20         16  
         0         20          2  
         0         20          6  
         0         20         10  
         0         20         14  
         0         20         18  
        15         10          4  
        15         10          8  
        15         10         12  
        15         10         16  
        15         10          2  
        15         10          6  
        15         10         10  
        15         10         14  
        15         10         18  
        10          5          4  
        10          5          8  
        10          5         12  
        10          5         16  
        10          5          2  
        10          5          6  
        10          5         10  
        10          5         14  
        10          5         18  
         5         10          4  
         5         10          8  
         5         10         12  
         5         10         16  
         5         10          2  
[...]
POINT_DATA 8107 
FIELD FieldData 7 
Displacement_Macro 3 8107 float
    -0.785     -0.465      -0.74  
     0.635     -0.415      -0.64  
     0.685     -0.355       0.18  
    -0.735     -0.405       0.08  
     0.305    -0.3975     -0.255  
    -0.405    -0.4225     -0.305  
   -0.0375     -0.395     -0.075  
   -0.0625     -0.425     -0.485  
    -0.685      0.355      -0.18  
     0.735      0.405      -0.08  
     0.785      0.465       0.74  
    -0.635      0.415       0.64  
     0.405     0.4225      0.305  
    0.0375      0.395      0.075  
    -0.305     0.3975      0.255  
    0.0625      0.425      0.485  
   -0.6075   -0.45875    -0.7275  
     -0.43    -0.4525     -0.715  
   -0.2525   -0.44625    -0.7025  
    -0.075      -0.44      -0.69  
    0.1025   -0.43375    -0.6775  
      0.28    -0.4275     -0.665  
    0.4575   -0.42125    -0.6525  
  -0.69625  -0.461875   -0.73375  
  -0.51875  -0.455625   -0.72125  
  -0.34125  -0.449375   -0.70875  
  -0.16375  -0.443125   -0.69625  
   0.01375  -0.436875   -0.68375  
   0.19125  -0.430625   -0.67125  
   0.36875  -0.424375   -0.65875  
   0.54625  -0.418125   -0.64625  
   0.64125    -0.4075    -0.5375  
    0.6475       -0.4     -0.435  
   0.65375    -0.3925    -0.3325  
      0.66     -0.385      -0.23  
   0.66625    -0.3775    -0.1275  
    0.6725      -0.37     -0.025  
   0.67875    -0.3625     0.0775  
  0.638125   -0.41125   -0.58875  
  0.644375   -0.40375   -0.48625  
  0.650625   -0.39625   -0.38375  
  0.656875   -0.38875   -0.28125  
  0.663125   -0.38125   -0.17875  
  0.669375   -0.37375   -0.07625  
  0.675625   -0.36625    0.02625  
  0.681875   -0.35875    0.12875  
    0.5075   -0.36125     0.1675  
      0.33    -0.3675      0.155  
    0.1525   -0.37375     0.1425  
    -0.025      -0.38       0.13  
   -0.2025   -0.38625     0.1175  
     -0.38    -0.3925      0.105  
   -0.5575   -0.39875     0.0925  
   0.59625  -0.358125    0.17375  
   0.41875  -0.364375    0.16125  
   0.24125  -0.370625    0.14875  
   0.06375  -0.376875    0.13625  
  -0.11375  -0.383125    0.12375  
  -0.29125  -0.389375    0.11125  
  -0.46875  -0.395625    0.09875  
  -0.64625  -0.401875    0.08625  
  -0.74125    -0.4125    -0.0225  
   -0.7475      -0.42     -0.125  
  -0.75375    -0.4275    -0.2275  
     -0.76     -0.435      -0.33  
  -0.76625    -0.4425    -0.4325  
   -0.7725      -0.45     -0.535  
  -0.77875    -0.4575    -0.6375  
 -0.738125   -0.40875    0.02875  
 -0.744375   -0.41625   -0.07375  
 -0.750625   -0.42375   -0.17625  
 -0.756875   -0.43125   -0.27875  
 -0.763125   -0.43875   -0.38125  
 -0.769375   -0.44625   -0.48375  
 -0.775625   -0.45375   -0.58625  
 -0.781875   -0.46125   -0.68875  
  0.296139  -0.394044  -0.202794  
  0.263689  -0.391675  -0.155849  
  0.209862  -0.390555  -0.117365  
  0.138325   -0.39076 -0.0899648  
 0.0539548  -0.392276 -0.0755147  
  0.303595  -0.395649  -0.228456  
  0.282761  -0.392711  -0.178453  
   0.23925  -0.390952   -0.13537  
  0.176027   -0.39049  -0.102144  
 0.0974011  -0.391358 -0.0810376  
0.00872986  -0.393497 -0.0734906  
 -0.129807  -0.398746 -0.0884557  
 -0.216675   -0.40326  -0.114965  
 -0.292184  -0.408232  -0.152721  
 -0.351189  -0.413325  -0.199151  
 -0.389668  -0.418192   -0.25109  
-0.0839437   -0.39676  -0.080017  
 -0.174304  -0.400925  -0.100172  
 -0.256193  -0.405709  -0.132582  
 -0.324031  -0.410785  -0.175038  
 -0.373194  -0.415808  -0.224647  
 -0.400331  -0.420435  -0.278028  
 -0.396139  -0.425956  -0.357206  
 -0.363689  -0.428325  -0.404151  
 -0.309862  -0.429445  -0.442635  
 -0.238325   -0.42924  -0.470035  
 -0.153955  -0.427724  -0.484485  
 -0.403595  -0.424351  -0.331544  
 -0.382761  -0.427289  -0.381547  
  -0.33925  -0.429048   -0.42463  
 -0.276027   -0.42951  -0.457856  
 -0.197401  -0.428642  -0.478962  
  -0.10873  -0.426503  -0.486509  
 0.0298067  -0.421254  -0.471544  
  0.116675   -0.41674  -0.445035  
  0.192184  -0.411768  -0.407279  
  0.251189  -0.406675  -0.360849  
  0.289668  -0.401808   -0.30891  
-0.0160563   -0.42324  -0.479983  
 0.0743041  -0.419075  -0.459828  
  0.156193  -0.414291  -0.427418  
  0.224031  -0.409215  -0.384962  
  0.273194  -0.404192  -0.335353  
  0.300331  -0.399565  -0.281972  
   -0.5075    0.36125    -0.1675  
     -0.33     0.3675     -0.155  
   -0.1525    0.37375    -0.1425  
     0.025       0.38      -0.13  
    0.2025    0.38625    -0.1175  
      0.38     0.3925     -0.105  
    0.5575    0.39875    -0.0925  
  -0.59625   0.358125   -0.17375  
  -0.41875   0.364375   -0.16125  
  -0.24125   0.370625   -0.14875  
  -0.06375   0.376875   -0.13625  
   0.11375   0.383125   -0.12375  
   0.29125   0.389375   -0.11125  
   0.46875   0.395625   -0.09875  
   0.64625   0.401875   -0.08625  
   0.74125     0.4125     0.0225  
    0.7475       0.42      0.125  
   0.75375     0.4275     0.2275  
      0.76      0.435       0.33  
   0.76625     0.4425     0.4325  
    0.7725       0.45      0.535  
   0.77875     0.4575     0.6375  
  0.738125    0.40875   -0.02875  
  0.744375    0.41625    0.07375  
  0.750625    0.42375    0.17625  
  0.756875    0.43125    0.27875  
  0.763125    0.43875    0.38125  
  0.769375    0.44625    0.48375  
  0.775625    0.45375    0.58625  
  0.781875    0.46125    0.68875  
    0.6075    0.45875     0.7275  
      0.43     0.4525      0.715  
    0.2525    0.44625     0.7025  
     0.075       0.44       0.69  
   -0.1025    0.43375     0.6775  
     -0.28     0.4275      0.665  
   -0.4575    0.42125     0.6525  
   0.69625   0.461875    0.73375  
   0.51875   0.455625    0.72125  
   0.34125   0.449375    0.70875  
   0.16375   0.443125    0.69625  
  -0.01375   0.436875    0.68375  
  -0.19125   0.430625    0.67125  
  -0.36875   0.424375    0.65875  
  -0.54625   0.418125    0.64625  
  -0.64125     0.4075     0.5375  
   -0.6475        0.4      0.435  
  -0.65375     0.3925     0.3325  
     -0.66      0.385       0.23  
  -0.66625     0.3775     0.1275  
   -0.6725       0.37      0.025  
  -0.67875     0.3625    -0.0775  
 -0.638125    0.41125    0.58875  
 -0.644375    0.40375    0.48625  
 -0.650625    0.39625    0.38375  
 -0.656875    0.38875    0.28125  
 -0.663125    0.38125    0.17875  
 -0.669375    0.37375    0.07625  
 -0.675625    0.36625   -0.02625  
 -0.681875    0.35875   -0.12875  
  0.389668   0.418192    0.25109  
  0.351189   0.413325   0.199151  
  0.292184   0.408232   0.152721  
  0.216675    0.40326   0.114965  
  0.129807   0.398746  0.0884557  
  0.400331   0.420435   0.278028  
  0.373194   0.415808   0.224647  
  0.324031   0.410785   0.175038  
  0.256193   0.405709   0.132582  
  0.174304   0.400925   0.100172  
 0.0839437    0.39676   0.080017  
-0.0539548   0.392276  0.0755147  
 -0.138325    0.39076  0.0899648  
 -0.209862   0.390555   0.117365  
 -0.263689   0.391675   0.155849  
 -0.296139   0.394044   0.202794  
-0.00872986   0.393497  0.0734906  
-0.0974011   0.391358  0.0810376  
 -0.176027    0.39049   0.102144  
  -0.23925   0.390952    0.13537  
 -0.282761   0.392711   0.178453  
 -0.303595   0.395649   0.228456  
 -0.289668   0.401808    0.30891  
 -0.251189   0.406675   0.360849  
 -0.192184   0.411768   0.407279  
 -0.116675    0.41674   0.445035  
-0.0298067   0.421254   0.471544  
 -0.300331   0.399565   0.281972  
 -0.273194   0.404192   0.335353  
 -0.224031   0.409215   0.384962  
 -0.156193   0.414291   0.427418  
-0.0743041   0.419075   0.459828  
 0.0160563    0.42324   0.479983  
  0.153955   0.427724   0.484485  
  0.238325    0.42924   0.470035  
  0.309862   0.429445   0.442635  
  0.363689   0.428325   0.404151  
  0.396139   0.425956   0.357206  
   0.10873   0.426503   0.486509  
  0.197401   0.428642   0.478962  
  0.276027    0.42951   0.457856  
   0.33925   0.429048    0.42463  
  0.382761   0.427289   0.381547  
  0.403595   0.424351   0.331544  
    -0.765     -0.301     -0.628  
    -0.745     -0.137     -0.516  
    -0.725      0.027     -0.404  
    -0.705      0.191     -0.292  
    -0.775     -0.383     -0.684  
    -0.755     -0.219     -0.572  
    -0.735     -0.055      -0.46  
    -0.715      0.109     -0.348  
    -0.695      0.273     -0.236  
     0.655     -0.251     -0.528  
     0.675     -0.087     -0.416  
     0.695      0.077     -0.304  
     0.715      0.241     -0.192  
     0.645     -0.333     -0.584  
     0.665     -0.169     -0.472  
     0.685     -0.005      -0.36  
     0.705      0.159     -0.248  
     0.725      0.323     -0.136  
     0.705     -0.191      0.292  
     0.725     -0.027      0.404  
     0.745      0.137      0.516  
     0.765      0.301      0.628  
     0.695     -0.273      0.236  
     0.715     -0.109      0.348  
     0.735      0.055       0.46  
     0.755      0.219      0.572  
     0.775      0.383      0.684  
    -0.715     -0.241      0.192  
    -0.695     -0.077      0.304  
    -0.675      0.087      0.416  
    -0.655      0.251      0.528  
    -0.725     -0.323      0.136  
    -0.705     -0.159      0.248  
    -0.685      0.005       0.36  
    -0.665      0.169      0.472  
    -0.645      0.333      0.584  
     0.325    -0.2335     -0.143  
     0.345    -0.0695     -0.031  
     0.365     0.0945      0.081  
     0.385     0.2585      0.193  
     0.315    -0.3155     -0.199  
     0.335    -0.1515     -0.087  
     0.355     0.0125      0.025  
     0.375     0.1765      0.137  
     0.395     0.3405      0.249  
   -0.0425     -0.261     -0.373  
   -0.0225     -0.097     -0.261  
   -0.0025      0.067     -0.149  
    0.0175      0.231     -0.037  
   -0.0525     -0.343     -0.429  
   -0.0325     -0.179     -0.317  
   -0.0125     -0.015     -0.205  
    0.0075      0.149     -0.093  
    0.0275      0.313      0.019  
    -0.385    -0.2585     -0.193  
    -0.365    -0.0945     -0.081  
    -0.345     0.0695      0.031  
    -0.325     0.2335      0.143  
    -0.395    -0.3405     -0.249  
    -0.375    -0.1765     -0.137  
    -0.355    -0.0125     -0.025  
    -0.335     0.1515      0.087  
    -0.315     0.3155      0.199  
   -0.0175     -0.231      0.037  
    0.0025     -0.067      0.149  
    0.0225      0.097      0.261  
    0.0425      0.261      0.373  
   -0.0275     -0.313     -0.019  
   -0.0075     -0.149      0.093  
    0.0125      0.015      0.205  
    0.0325      0.179      0.317  
    0.0525      0.343      0.429  
 -0.382833  -0.434304  -0.479865  
  0.242861  -0.412845  -0.443835  
 -0.345022  -0.407148  -0.115159  
  0.283608  -0.385687 -0.0803377  
  0.358531  -0.401593  -0.335031  
 -0.204819  -0.433748  -0.547415  
  0.110299  -0.387387 -0.0308148  
 -0.458613  -0.418411  -0.224984  
  0.406349   -0.38977  -0.189517  
 -0.135532  -0.394442 -0.0256824  
 0.0521642  -0.423291  -0.509566  
 -0.506324  -0.430231  -0.370506  
  -0.57007  -0.410272 -0.0637129  
  -0.50335  -0.447702  -0.616696  
  0.408715  -0.371883  0.0602415  
  0.467187  -0.409797  -0.496033  
  -0.65883  -0.441993  -0.470852  
  0.117521  -0.428686  -0.612858  
 -0.286196  -0.393718  0.0482216  
  0.558824  -0.378009 -0.0891733  
  0.207502  -0.385668 -0.0478549  
  0.152272   -0.38224  0.0235748  
 0.0370093  -0.385041  0.0330854  
  0.368471  -0.379734  -0.032796  
 -0.413597  -0.412779  -0.165081  
 -0.546698   -0.41992  -0.208864  
 -0.581451  -0.425916   -0.27821  
 -0.414413  -0.406215  -0.072715  
  0.312934  -0.407231  -0.394786  
  0.446605  -0.400083  -0.351135  
  0.481427  -0.394086  -0.281798  
  0.309396   -0.41384  -0.485943  
-0.0606017  -0.428106   -0.52935  
 -0.309962  -0.434716  -0.516481  
 -0.465631  -0.440121  -0.526369  
  0.154901  -0.418157  -0.481069  
  0.344029  -0.387033  -0.124774  
 -0.443682  -0.432957  -0.435229  
 -0.258107  -0.401487 -0.0725831  
-0.0383097  -0.430935  -0.578442  
 -0.643606  -0.447583  -0.555671  
  0.320384  -0.420485  -0.583748  
 -0.436333  -0.399845  0.0258745  
  0.543608  -0.372417 -0.00433288  
 -0.160069  -0.389311  0.0566238  
  0.553546  -0.383369  -0.162083  
  -0.65354  -0.436632  -0.397931  
 -0.161108  -0.436543  -0.605094  
 0.0910664  -0.425465  -0.556506  
 -0.487506  -0.424086  -0.292323  
-0.0023932  -0.390333 -0.0244351  
  0.387487  -0.395915  -0.267685  
 -0.624543  -0.432127   -0.34705  
  0.524543  -0.387874  -0.212961  
-0.0760526   -0.38742  0.0475865  
  0.210824  -0.419614  -0.525166  
 -0.530699  -0.438903  -0.481763  
  0.431377  -0.381066 -0.0780894  
 -0.325613  -0.400384 -0.0285404  
  0.530052  -0.401417  -0.405158  
   0.25958  -0.374879  0.0813524  
 -0.319551  -0.441961  -0.613993  
  -0.63037  -0.418591  -0.154823  
 -0.632276  -0.452972  -0.636013  
  0.475481  -0.414579  -0.566588  
 -0.578963  -0.405497 0.00699202  
   0.53324  -0.366954  0.0766361  
-0.00186812  -0.433472  -0.629432  
 -0.510171  -0.412096  -0.114632  
 -0.396623  -0.441234  -0.571178  
  0.310594  -0.377933  0.0169494  
  0.409962  -0.407906  -0.445305  
  0.555069  -0.392563  -0.291626  
 0.0657487  -0.380971  0.0779792  
  -0.65509  -0.427437  -0.268378  
  0.365881  -0.414482  -0.518847  
  0.435058  -0.374897 0.00683177  
 -0.531781  -0.444892   -0.56527  
 -0.472908  -0.405632 -0.0397783  
 -0.231401  -0.394227   0.017903  
  -0.59726   -0.43749  -0.433787  
  0.497379  -0.382506   -0.12621  
  0.547126  -0.396733  -0.346721  
  0.160455  -0.377823  0.0820355  
 -0.647206  -0.423269  -0.213275  
 -0.250311  -0.441549  -0.637522  
 -0.136999  -0.438245  -0.639163  
  0.265604   -0.42005  -0.554457  
  0.150945  -0.422539  -0.540836  
  0.104294  -0.427075  -0.584682  
  0.218953  -0.424585  -0.598303  
  0.184949  -0.423562  -0.569569  
  0.539045  -0.385621  -0.187522  
  0.525463  -0.382937  -0.144147  
  0.451864  -0.386138  -0.157864  
  0.465446  -0.388822  -0.201239  
  0.495454   -0.38588  -0.172693  
 -0.118061  -0.388366  0.0521052  
 -0.195735  -0.391769  0.0372634  
 -0.183466  -0.394334 -0.00388972  
 -0.105792  -0.390931  0.0109521  
 -0.150764   -0.39135  0.0241077  
 -0.639042  -0.434379   -0.37249  
   -0.6254  -0.437061  -0.415859  
 -0.551792  -0.433861  -0.402147  
 -0.565433  -0.431179  -0.358778  
 -0.595417   -0.43412  -0.387318  
 -0.708053  -0.448792  -0.545335  
 -0.651218  -0.444788  -0.513261  
  -0.71254  -0.442246  -0.451676  
 -0.710297  -0.445519  -0.498506  
  0.300192  -0.423993  -0.624374  
   0.11001  -0.431218  -0.645179  
  0.205101  -0.427605  -0.634776  
 -0.408166  -0.396172  0.0654372  
 -0.361264  -0.396781   0.037048  
 -0.244348  -0.389984  0.0828608  
 -0.326257  -0.393078   0.074149  
  0.608054  -0.371208 -0.0146664  
  0.551216  -0.375213 -0.0467531  
  0.612537  -0.377755  -0.108337  
  0.610295  -0.374481 -0.0615015  
 -0.379717  -0.406682 -0.0939372  
 -0.462292  -0.409156 -0.0936737  
 -0.461884  -0.412438  -0.139857  
  -0.37931  -0.409964   -0.14012  
 -0.420801   -0.40956  -0.116897  
 -0.424232  -0.437212  -0.503117  
 -0.431127  -0.440677  -0.548774  
 -0.353293  -0.437975   -0.54383  
 -0.346397   -0.43451  -0.498173  
 -0.388762  -0.437594  -0.523473  
   0.32604  -0.382711 -0.0565668  
  0.339532  -0.378834 -0.00792332  
  0.259048    -0.3818 -0.0154528  
  0.245555  -0.385677 -0.0640963  
  0.292544  -0.382255 -0.0360098  
  0.276128  -0.413343  -0.464889  
  0.359679  -0.410873  -0.465624  
  0.361448  -0.407569  -0.420046  
  0.277897  -0.410038   -0.41931  
  0.318788  -0.410456  -0.442467  
 -0.382393  -0.413052  -0.182116  
 -0.318603   -0.40769   -0.13394  
  -0.35167  -0.410375  -0.157579  
  0.172914  -0.388214 -0.0689099  
  0.246735  -0.388121 -0.0988516  
  0.210791  -0.388084 -0.0831199  
 -0.274143  -0.431978  -0.493258  
 -0.346348  -0.431875   -0.46125  
 -0.311212   -0.43201  -0.478015  
  0.282062  -0.406953  -0.377818  
  0.217522  -0.412307  -0.425557  
  0.250964  -0.409626  -0.402136  
  0.592271  -0.386437   -0.22148  
  0.609898  -0.380435  -0.144791  
  0.601085  -0.383436  -0.183136  
-0.0505263   -0.38371  0.0887933  
 -0.181285  -0.387781  0.0870619  
 -0.115905  -0.385745  0.0879276  
 -0.692271  -0.433563  -0.338525  
 -0.709895  -0.439566  -0.415215  
 -0.701083  -0.436565   -0.37687  
 -0.251405    -0.4439  -0.670011  
 -0.194749  -0.442248  -0.670832  
 -0.149053  -0.437394  -0.622129  
 -0.205709  -0.439046  -0.621308  
 -0.200229  -0.440647   -0.64607  
 -0.284931  -0.441755  -0.625757  
 -0.374776   -0.44723  -0.664496  
 -0.313091  -0.445565  -0.667254  
 -0.619888  -0.455861  -0.681756  
 -0.705513  -0.455236  -0.636756  
 -0.700881  -0.458556  -0.685253  
  0.558366   -0.41104  -0.552044  
  0.466491  -0.417915  -0.609544  
  0.552308  -0.414582  -0.599147  
 -0.660107  -0.408999 -0.00775399  
 -0.568232  -0.402124   0.049746  
 -0.653178  -0.405437   0.039248  
   0.52037  -0.364102   0.122068  
  0.605995  -0.364727  0.0770681  
  0.601122  -0.361426   0.125409  
  0.588776  -0.400708  -0.420079  
  0.600438  -0.394617  -0.339611  
  0.538589  -0.399075   -0.37594  
  0.594607  -0.397663  -0.379845  
   0.29479   -0.37119   0.118176  
  0.156477  -0.375786   0.112268  
  0.210017  -0.376351  0.0816939  
  0.225634  -0.373488   0.115222  
 -0.688935  -0.419296  -0.139912  
 -0.700478  -0.425384  -0.220388  
 -0.638788   -0.42093  -0.184049  
 -0.694706   -0.42234   -0.18015  
  -0.45462  -0.402738 -0.00695189  
  -0.44366  -0.405923 -0.0562466  
 -0.370013  -0.403299 -0.0506277  
 -0.380973  -0.400114 -0.00133298  
 -0.412316  -0.403019 -0.0287898  
 -0.587693  -0.446238   -0.56047  
 -0.498706  -0.442506   -0.54582  
 -0.498165  -0.439512  -0.504066  
 -0.587152  -0.443243  -0.518717  
 -0.542929  -0.442875  -0.532268  
  0.489333  -0.373657 0.00124945  
  0.401764  -0.377316 -0.0129821  
  0.399924    -0.3804 -0.0554427  
  0.487492  -0.376741 -0.0412112  
  0.444628  -0.377029 -0.0270966  
  0.343133  -0.417484  -0.551297  
  0.337638  -0.414161  -0.502395  
   0.26011  -0.416727  -0.505555  
  0.301621  -0.417105  -0.528426  
  0.464378  -0.381786   -0.10215  
  0.387703  -0.384049  -0.101432  
  0.375189  -0.388401  -0.157145  
  0.419784  -0.385094  -0.129648  
 -0.563979  -0.438197  -0.457775  
  -0.48719   -0.43593  -0.458496  
 -0.475003  -0.431594  -0.402868  
 -0.519491  -0.434895  -0.430321  
 -0.278507  -0.397305 -0.00531873  
  -0.29186  -0.400935 -0.0505618  
 -0.196819  -0.397964 -0.0491328  
 -0.237663  -0.397635 -0.0272257  
 -0.466675  -0.450101  -0.665848  
 -0.567813  -0.450337  -0.626354  
 -0.543281  -0.452981  -0.673802  
  0.557343  -0.404898  -0.465516  
  0.471334  -0.412188   -0.53131  
  0.557854  -0.407969   -0.50878  
 -0.658785  -0.415136 -0.0943565  
 -0.574516  -0.407885 -0.0283604  
 -0.659446  -0.412067 -0.0510552  
  0.369358  -0.369691   0.107621  
  0.470978  -0.369419  0.0684388  
  0.444864  -0.366897   0.114844  
 -0.413258   -0.43363  -0.457547  
 -0.403686  -0.430641   -0.41969  
 -0.376254  -0.431339  -0.441088  
  0.198881  -0.415501  -0.462452  
  0.135788  -0.417449  -0.463052  
  0.177537  -0.414896  -0.444935  
 -0.301564  -0.404318 -0.0938713  
 -0.237391  -0.402373 -0.0937739  
 -0.278879  -0.405013  -0.113226  
  0.313819   -0.38636  -0.102556  
  0.303859  -0.389354  -0.140312  
  0.276534  -0.388656  -0.118963  
 -0.258798  -0.393972  0.0330623  
 -0.220041  -0.390877  0.0600621  
  0.528102  -0.380258  -0.107692  
     0.569  -0.380346  -0.126242  
 -0.628045  -0.439742   -0.45232  
  -0.66897  -0.439654  -0.433767  
  0.182863  -0.418885  -0.503118  
  0.103533  -0.420724  -0.495318  
 0.0716153  -0.424378  -0.533036  
  0.127239  -0.421632  -0.518077  
 -0.521489  -0.407952 -0.0517456  
 -0.507648  -0.402671  0.0164332  
 -0.514568  -0.405311 -0.0176562  
 -0.517565  -0.446297  -0.590983  
 -0.637941  -0.450278  -0.595842  
 -0.577753  -0.448288  -0.593412  
  0.421887   -0.37339  0.0335366  
  0.538424  -0.369686  0.0361516  
  0.480155  -0.371538  0.0348441  
  0.416534   -0.41214   -0.50744  
  0.397933  -0.417532  -0.575168  
  0.407233  -0.414836  -0.541304  
-0.00421877  -0.425698  -0.519458  